LAMMPS data file - Bulk Water Simulation

1029 atoms
 686 bonds
 343 angles
   0 dihedrals
   0 impropers

 2 atom types
 1 bond types
 1 angle types
 0 dihedral types

    -10.8626555     10.8626555 xlo xhi
    -10.8626555     10.8626555 ylo yhi
    -10.8626555     10.8626555 zlo zhi

Masses

       1    16.00000
       2     1.00790

Pair Coeffs

       1     0.15535     3.16600
       2     0.00000     0.00000

Atoms

       1     1  1    -0.84760      4.3556664      2.7303053     21.6229698
       2     1  2     0.42380      4.7733611      3.6252616     21.7797640
       3     1  2     0.42380      3.9461821      2.3999931     22.4733911
       4     2  1    -0.84760      2.1674014      5.5520342      1.1374059
       5     2  2     0.42380      2.1690997      4.5880138      1.4032288
       6     2  2     0.42380      2.0591571      6.1221613      1.9518003
       7     3  1    -0.84760      2.0000574      8.0195344      2.6969154
       8     3  2     0.42380      1.3957376      8.7333566      3.0508297
       9     3  2     0.42380      2.3018519      8.2648579      1.7756464
      10     4  1    -0.84760      2.9114348      9.4853917      0.6600373
      11     4  2     0.42380      2.5947605     10.3568615      1.0345476
      12     4  2     0.42380      2.4464019      9.3065420     -0.2070020
      13     5  1    -0.84760      2.4531451     12.4913378      2.0150675
      14     5  2     0.42380      1.7185828     12.9609161      1.5252568
      15     5  2     0.42380      3.1963918     13.1348896      2.1978936
      16     6  1    -0.84760      2.2343937     17.1938661      0.5367136
      17     6  2     0.42380      2.0952099     18.1811579      0.6134127
      18     6  2     0.42380      2.3703697     16.9500291     -0.4235229
      19     7  1    -0.84760      1.6003641     19.8079455      0.5466431
      20     7  2     0.42380      1.8582404     19.8539928     -0.4184369
      21     7  2     0.42380      1.4599402     20.7333498      0.8986488
      22     8  1    -0.84760      5.2084728     20.9830200      0.7537276
      23     8  2     0.42380      5.9884591     21.5885223      0.5956501
      24     8  2     0.42380      4.9260791     21.0462140      1.7109424
      25     9  1    -0.84760      5.5426765      4.6591394      1.8417987
      26     9  2     0.42380      5.1904561      4.3498988      2.7251508
      27     9  2     0.42380      6.4894295      4.3552074      1.7355719
      28    10  1    -0.84760      5.1364470      7.3405113      2.3339430
      29    10  2     0.42380      5.8462874      6.7822089      1.9044958
      30    10  2     0.42380      4.2946421      7.2797968      1.7975864
      31    11  1    -0.84760      6.3912452      9.9586255      1.2228739
      32    11  2     0.42380      5.8661803      9.3329978      1.7998461
      33    11  2     0.42380      6.0112086      9.9573066      0.2979034
      34    12  1    -0.84760      6.5029499     12.6989506      2.0788945
      35    12  2     0.42380      6.2302950     13.5265006      1.5881600
      36    12  2     0.42380      6.3990098     11.9059583      1.4785948
      37    13  1    -0.84760      5.8377120     15.1149895      0.3413215
      38    13  2     0.42380      6.0717987     15.8466400     -0.2989058
      39    13  2     0.42380      5.1518563     15.4459849      0.9894295
      40    14  1    -0.84760      6.3997281     18.3743699      1.9911731
      41    14  2     0.42380      5.7470920     18.6737260      1.2951472
      42    14  2     0.42380      7.2030758     18.9695964      1.9727890
      43    15  1    -0.84760      7.2675573      1.0311856      0.2029013
      44    15  2     0.42380      6.7496678      1.3206812     -0.6020725
      45    15  2     0.42380      7.6659786      1.8326628      0.6488775
      46    16  1    -0.84760      8.3109233      3.3926618      1.1595077
      47    16  2     0.42380      8.2784484      4.0739137      0.4281793
      48    16  2     0.42380      8.9521646      3.6923057      1.8659235
      49    17  1    -0.84760      7.4795945      6.8338514      1.0882334
      50    17  2     0.42380      7.2145370      6.2117722      0.3515096
      51    17  2     0.42380      7.6328568      7.7482079      0.7134495
      52    18  1    -0.84760      9.1115795     10.7728870      2.2454658
      53    18  2     0.42380      8.2115874     10.7318918      1.8114918
      54    18  2     0.42380      9.0072696     10.6963824      3.2370637
      55    19  1    -0.84760     10.1896575     13.4568091      1.9130315
      56    19  2     0.42380     10.0370449     12.5514503      2.3093076
      57    19  2     0.42380     11.1549448     13.7018393      2.0034788
      58    20  1    -0.84760      9.2557904     17.6164602      0.1241990
      59    20  2     0.42380      8.4975404     17.4273085     -0.4997230
      60    20  2     0.42380      9.1098681     17.1272511      0.9840718
      61    21  1    -0.84760      8.4719550     20.5132488      1.6409637
      62    21  2     0.42380      9.3623195     20.2765749      1.2520722
      63    21  2     0.42380      8.2057729     21.4265800      1.3327864
      64    22  1    -0.84760     11.8210296      1.0753720      1.6003919
      65    22  2     0.42380     11.6809788      0.3891110      0.8866471
      66    22  2     0.42380     11.3086597      0.8146354      2.4186178
      67    23  1    -0.84760     12.7525338      3.6191342      1.9619391
      68    23  2     0.42380     12.5363199      2.6429549      1.9438924
      69    23  2     0.42380     12.8230174      3.9274313      2.9106145
      70    24  1    -0.84760     12.2455722      7.2216645      1.0906210
      71    24  2     0.42380     11.7056386      8.0633705      1.0889858
      72    24  2     0.42380     13.1589593      7.4108823      0.7301757
      73    25  1    -0.84760     11.1849934      9.7472096      0.9631602
      74    25  2     0.42380     10.4719535     10.1893927      1.5072634
      75    25  2     0.42380     11.4561937     10.3520587      0.2144226
      76    26  1    -0.84760     12.7347335     14.3715839      1.8826729
      77    26  2     0.42380     12.7658453     14.9669946      1.0798539
      78    26  2     0.42380     13.5565302     13.8023453      1.9075228
      79    27  1    -0.84760     12.0303023     17.4565419      0.8400656
      80    27  2     0.42380     12.3761821     18.2382290      1.3590382
      81    27  2     0.42380     11.0618208     17.5957886      0.6335376
      82    28  1    -0.84760     11.2920045     20.2852530      0.1731321
      83    28  2     0.42380     11.8493226     20.0260816      0.9619457
      84    28  2     0.42380     11.5247161     19.7023316     -0.6053587
      85    29  1    -0.84760     15.5560845      1.0366110      0.8513156
      86    29  2     0.42380     16.4806873      1.1978971      1.1964191
      87    29  2     0.42380     14.8906796      1.4383207      1.4804941
      88    30  1    -0.84760     14.9386206      4.4773509      0.4587724
      89    30  2     0.42380     15.0280141      4.1755030     -0.4903833
      90    30  2     0.42380     14.0312691      4.2343193      0.8017725
      91    31  1    -0.84760     15.1757278      7.2353264     21.6742986
      92    31  2     0.42380     15.9420270      7.5969240     22.2053660
      93    31  2     0.42380     15.1303859      6.2428321     21.7878733
      94    32  1    -0.84760     14.9227720      9.9879737      1.1294540
      95    32  2     0.42380     14.5603851      9.8252842      0.2117352
      96    32  2     0.42380     14.4100862      9.4418136      1.7919210
      97    33  1    -0.84760     15.0166637     12.7728428      1.1900507
      98    33  2     0.42380     15.1917070     13.0053527      2.1467633
      99    33  2     0.42380     14.8153387     11.7961319      1.1158617
     100    34  1    -0.84760     13.8785817     16.0623168     21.4492583
     101    34  2     0.42380     14.7794987     16.3209578     21.7977598
     102    34  2     0.42380     13.1977610     16.7251542     21.7609148
     103    35  1    -0.84760     13.3514112     19.5231048      1.8146339
     104    35  2     0.42380     13.0812344     19.7280484      2.7553797
     105    35  2     0.42380     14.2435473     19.9340690      1.6270133
     106    36  1    -0.84760     18.1163283      1.2391889      1.4519488
     107    36  2     0.42380     17.9780745      1.1851740      2.4408715
     108    36  2     0.42380     19.0957867      1.2771348      1.2539053
     109    37  1    -0.84760     17.7616428      4.5226905      1.9391489
     110    37  2     0.42380     17.4230306      4.8846796      2.8076567
     111    37  2     0.42380     16.9875792      4.2973825      1.3474886
     112    38  1    -0.84760     17.5217103      7.8222870      0.9899362
     113    38  2     0.42380     18.5187801      7.7961438      0.9180449
     114    38  2     0.42380     17.2514717      8.5582555      1.6106789
     115    39  1    -0.84760     17.6612311     11.9370906      1.3187752
     116    39  2     0.42380     16.9936501     11.7176243      0.6073188
     117    39  2     0.42380     17.2013734     11.9792352      2.2057672
     118    40  1    -0.84760     18.2426911     14.7053418      0.7782862
     119    40  2     0.42380     17.8571834     15.2241509      0.0152523
     120    40  2     0.42380     18.2613760     13.7331905      0.5446782
     121    41  1    -0.84760     16.0483711     16.4607811      1.6125762
     122    41  2     0.42380     16.5581146     17.2182401      2.0205190
     123    41  2     0.42380     16.6206344     15.6407667      1.6030321
     124    42  1    -0.84760     15.9063187     20.1153359      0.7295678
     125    42  2     0.42380     16.4391917     19.6895509      1.4608362
     126    42  2     0.42380     16.0142144     21.1085298      0.7734354
     127    43  1    -0.84760      0.1191136      3.1777773      1.0535127
     128    43  2     0.42380      0.8867080      3.0234317      1.6755869
     129    43  2     0.42380     -0.2612644      2.2978791      0.7687467
     130    44  1    -0.84760     20.2857067      5.2908216      1.1154362
     131    44  2     0.42380     20.9322572      4.5759800      0.8490270
     132    44  2     0.42380     19.3804613      4.8879835      1.2505361
     133    45  1    -0.84760     20.4609049      7.9792632      1.6562285
     134    45  2     0.42380     20.6873264      7.0208579      1.8299889
     135    45  2     0.42380     19.9259879      8.3392519      2.4206053
     136    46  1    -0.84760     20.1012840     10.4259106      0.2592249
     137    46  2     0.42380     19.2994048     10.8958553      0.6281988
     138    46  2     0.42380     20.3087520      9.6271980      0.8240392
     139    47  1    -0.84760     20.5803254     14.1719875      2.2905885
     140    47  2     0.42380     19.6657182     14.1359428      1.8878549
     141    47  2     0.42380     21.0636888     14.9777509      1.9483823
     142    48  1    -0.84760     21.5882479     16.5856541      1.5384177
     143    48  2     0.42380     22.5835120     16.5697720      1.4425153
     144    48  2     0.42380     21.3221949     17.3495251      2.1263947
     145    49  1    -0.84760     20.2711382     19.9669440      0.3025030
     146    49  2     0.42380     20.9137831     19.3821704     -0.1925197
     147    49  2     0.42380     19.3382621     19.7631553      0.0054973
     148    50  1    -0.84760      1.9389308      2.5091365      2.8028876
     149    50  2     0.42380      2.7708039      2.8614692      3.2316637
     150    50  2     0.42380      1.4192600      1.9768232      3.4711576
     151    51  1    -0.84760      4.0806672      3.6407269      3.9557798
     152    51  2     0.42380      3.3479697      4.2641885      4.2286351
     153    51  2     0.42380      4.8225238      3.6851228      4.6248671
     154    52  1    -0.84760      2.7762130      6.3708909      4.7425617
     155    52  2     0.42380      3.5979376      6.8270481      5.0841600
     156    52  2     0.42380      2.4867874      6.8016795      3.8877787
     157    53  1    -0.84760      3.3773841     10.7787881      4.0122440
     158    53  2     0.42380      4.2936641     10.4535408      3.7784813
     159    53  2     0.42380      2.9630532     11.2117240      3.2116839
     160    54  1    -0.84760      4.0478621     14.9616800      2.8352818
     161    54  2     0.42380      3.5695015     15.7383472      3.2451099
     162    54  2     0.42380      4.9085495     14.8067199      3.3202609
     163    55  1    -0.84760      2.7570935     17.2853899      3.8295733
     164    55  2     0.42380      2.6927837     17.5810912      4.7826866
     165    55  2     0.42380      2.7045197     18.0830999      3.2288282
     166    56  1    -0.84760     20.6463529     18.8806132      4.5971696
     167    56  2     0.42380     19.9415802     18.1724718      4.5543755
     168    56  2     0.42380     21.1427645     18.8049900      5.4619567
     169    57  1    -0.84760      5.0940125      0.3737868      3.4403629
     170    57  2     0.42380      4.2944793      0.7662026      3.8950677
     171    57  2     0.42380      5.8659273      1.0044603      3.5203531
     172    58  1    -0.84760      5.9218243      4.7326585      5.4972710
     173    58  2     0.42380      6.7649430      4.5824237      6.0135852
     174    58  2     0.42380      5.6255320      5.6809054      5.6114575
     175    59  1    -0.84760      5.3102841      7.4283713      5.2423823
     176    59  2     0.42380      5.1880926      7.3899823      4.2506184
     177    59  2     0.42380      5.7829877      8.2748278      5.4874591
     178    60  1    -0.84760      6.1782161      9.7859100      5.5990788
     179    60  2     0.42380      5.8919862     10.4563971      6.2835636
     180    60  2     0.42380      7.0613467     10.0568030      5.2160679
     181    61  1    -0.84760      6.5279329     14.2871398      4.1345731
     182    61  2     0.42380      7.2872158     14.2960921      4.7852722
     183    61  2     0.42380      6.5785489     13.4601429      3.5746497
     184    62  1    -0.84760      6.9398615     17.1035060      4.1755113
     185    62  2     0.42380      6.5289359     16.2077708      4.0058104
     186    62  2     0.42380      6.7011604     17.7262851      3.4304153
     187    63  1    -0.84760      5.8013247     20.1595202      5.3634075
     188    63  2     0.42380      5.1872801     20.2168148      4.5762185
     189    63  2     0.42380      6.0283682     21.0815904      5.6768367
     190    64  1    -0.84760      7.2434905      1.8094486      3.9304934
     191    64  2     0.42380      7.5875209      1.3417081      4.7446567
     192    64  2     0.42380      7.9129959      2.4878457      3.6279378
     193    65  1    -0.84760      9.7538209      3.5171586      3.5906822
     194    65  2     0.42380     10.6334240      3.0514142      3.6875355
     195    65  2     0.42380      9.5202262      3.9705251      4.4508521
     196    66  1    -0.84760      8.8053812      7.5921010      3.6935508
     197    66  2     0.42380      8.5581222      7.3498713      2.7553676
     198    66  2     0.42380      8.4798478      6.8820599      4.3179462
     199    67  1    -0.84760      8.9720466     10.0970179      4.9059259
     200    67  2     0.42380      8.9419459      9.1575524      4.5646069
     201    67  2     0.42380      9.4038211     10.1103089      5.8078096
     202    68  1    -0.84760      9.0333636     14.2962118      5.4607489
     203    68  2     0.42380      8.8336355     13.9585265      6.3805735
     204    68  2     0.42380      9.9051582     13.9183671      5.1489677
     205    69  1    -0.84760      9.2288253     16.5287685      2.7050811
     206    69  2     0.42380      9.5651402     15.6784568      3.1098803
     207    69  2     0.42380      8.5420936     16.9358432      3.3073184
     208    70  1    -0.84760      8.5361076     20.6524369      4.2887886
     209    70  2     0.42380      7.8531817     20.0096904      4.6359042
     210    70  2     0.42380      8.5389478     20.6281072      3.2890887
     211    71  1    -0.84760     10.7481497      0.3009467      3.9950574
     212    71  2     0.42380     11.1341492      0.6357346      4.8546628
     213    71  2     0.42380      9.8342390     -0.0691293      4.1618230
     214    72  1    -0.84760     12.5350466      3.2972168      4.6504085
     215    72  2     0.42380     12.9644582      2.5135854      5.0993267
     216    72  2     0.42380     12.3396677      4.0046269      5.3296714
     217    73  1    -0.84760     11.6797375      6.0990555      3.6921772
     218    73  2     0.42380     11.6093049      6.5732956      2.8146035
     219    73  2     0.42380     11.1473398      5.2532655      3.6576546
     220    74  1    -0.84760     12.6259317     10.5882431      3.5505751
     221    74  2     0.42380     13.2589762     10.0828239      4.1369248
     222    74  2     0.42380     12.5034680     10.0951212      2.6892776
     223    75  1    -0.84760     11.6465625     13.1471574      4.5742131
     224    75  2     0.42380     12.0399645     13.9065430      4.0559773
     225    75  2     0.42380     11.8493258     12.2855894      4.1088234
     226    76  1    -0.84760     11.3991570     17.5080833      4.3580569
     227    76  2     0.42380     11.4264051     17.1714995      5.2993161
     228    76  2     0.42380     10.6953019     17.0140416      3.8476544
     229    77  1    -0.84760     12.5384100     20.0075529      4.5236573
     230    77  2     0.42380     11.7743921     20.6175477      4.3134597
     231    77  2     0.42380     12.1950557     19.0784690      4.6611740
     232    78  1    -0.84760     14.8444993      0.9644253      3.3922666
     233    78  2     0.42380     14.4654830      0.6846485      4.2743502
     234    78  2     0.42380     15.8163169      0.7311960      3.3579947
     235    79  1    -0.84760     15.6249667      3.7702575      4.1734540
     236    79  2     0.42380     16.6147193      3.6274667      4.1741234
     237    79  2     0.42380     15.1653018      2.9172146      3.9264195
     238    80  1    -0.84760     14.4809269      6.0852518      3.5750969
     239    80  2     0.42380     14.8063798      5.1413706      3.5188068
     240    80  2     0.42380     13.4831418      6.0903880      3.6414179
     241    81  1    -0.84760     14.4297284      8.7106081      4.3382322
     242    81  2     0.42380     14.5022858      7.7584921      4.0412297
     243    81  2     0.42380     15.2859947      8.9905191      4.7723496
     244    82  1    -0.84760     15.2276172     13.8073490      3.8104418
     245    82  2     0.42380     14.9662063     13.7001346      4.7696963
     246    82  2     0.42380     15.1685857     14.7722993      3.5547346
     247    83  1    -0.84760     13.9874777     16.3816626      3.5335075
     248    83  2     0.42380     13.1101140     16.8158839      3.3293384
     249    83  2     0.42380     14.6131530     16.5170287      2.7652587
     250    84  1    -0.84760     15.0272372     19.4555171      4.8386261
     251    84  2     0.42380     14.0888442     19.7442996      4.6488282
     252    84  2     0.42380     15.0360537     18.8559175      5.6388777
     253    85  1    -0.84760     17.5646153      0.3218932      4.0422691
     254    85  2     0.42380     17.5982452      1.0688939      4.7062412
     255    85  2     0.42380     18.4200720     -0.1947350      4.0781735
     256    86  1    -0.84760     18.1103289      2.7580895      5.3927626
     257    86  2     0.42380     17.5875433      2.2447773      6.0733548
     258    86  2     0.42380     18.8987341      3.1879357      5.8328189
     259    87  1    -0.84760     17.1963268      7.0848308      4.7363753
     260    87  2     0.42380     18.1301883      6.8730628      4.4481789
     261    87  2     0.42380     16.5881142      6.3363481      4.4720819
     262    88  1    -0.84760     18.6327231      9.2273724      3.4434939
     263    88  2     0.42380     17.8686843      8.8169960      3.9413251
     264    88  2     0.42380     18.7685731     10.1671448      3.7571377
     265    89  1    -0.84760     17.0890373     11.8858437      4.0437419
     266    89  2     0.42380     16.7747750     11.2923303      4.7846744
     267    89  2     0.42380     16.5371041     12.7195765      4.0276358
     268    90  1    -0.84760     18.6031651     17.0462312      4.0483119
     269    90  2     0.42380     17.7204591     17.2351226      4.4786027
     270    90  2     0.42380     18.9947206     16.2145609      4.4420235
     271    91  1    -0.84760     16.7222006     18.8824267      2.8826789
     272    91  2     0.42380     16.1871103     19.1450748      3.6856074
     273    91  2     0.42380     17.6582395     18.6678152      3.1615572
     274    92  1    -0.84760      0.0235997      1.3307464      4.4489469
     275    92  2     0.42380      0.2694750      1.1007883      5.3905756
     276    92  2     0.42380     -0.5431649      0.6018256      4.0649515
     277    93  1    -0.84760     21.2803572      4.2060657      3.9221307
     278    93  2     0.42380     21.2006589      4.4012666      2.9446110
     279    93  2     0.42380     21.6051211      3.2688841      4.0494851
     280    94  1    -0.84760     20.0705792      6.4846939      4.7113266
     281    94  2     0.42380     20.5645664      7.3308426      4.9113487
     282    94  2     0.42380     20.7220213      5.7718935      4.4514444
     283    95  1    -0.84760     21.3165867      9.1730067      4.8557147
     284    95  2     0.42380     21.9083427      9.3974233      5.6299640
     285    95  2     0.42380     20.7630190      9.9708778      4.6170424
     286    96  1    -0.84760     20.0966494     11.8841075      4.2557579
     287    96  2     0.42380     20.5535087     12.4858883      3.6006707
     288    96  2     0.42380     19.1245065     12.1145984      4.2983260
     289    97  1    -0.84760     20.6310276     15.0092752      4.8849626
     290    97  2     0.42380     21.6011198     15.0707617      5.1197828
     291    97  2     0.42380     20.5273347     14.5103582      4.0245385
     292    98  1    -0.84760     20.1648239     20.9912267      3.0887760
     293    98  2     0.42380     20.5023595     20.1268476      3.4614940
     294    98  2     0.42380     20.1734470     20.9494001      2.0896884
     295    99  1    -0.84760      2.4143390      1.5784632      6.6319490
     296    99  2     0.42380      3.4048662      1.7094229      6.5906518
     297    99  2     0.42380      1.9887397      2.3829956      7.0461866
     298   100  1    -0.84760      0.9000153      3.7520424      8.0446053
     299   100  2     0.42380      1.4961800      3.4009197      8.7666167
     300   100  2     0.42380      1.1391813      4.7028849      7.8478866
     301   101  1    -0.84760      2.0947772      6.2455575      7.4887176
     302   101  2     0.42380      2.1501978      6.0664820      6.5064445
     303   101  2     0.42380      1.6582901      7.1321515      7.6417866
     304   102  1    -0.84760      2.2328643     10.0058577      6.3602830
     305   102  2     0.42380      1.6111332     10.7886490      6.3340484
     306   102  2     0.42380      2.6798152      9.9052567      5.4713993
     307   103  1    -0.84760      4.6758939     12.4502452      5.8165712
     308   103  2     0.42380      5.3673802     12.9849257      5.3308104
     309   103  2     0.42380      4.1765307     11.8800430      5.1642631
     310   104  1    -0.84760      3.0042064     18.2430626      6.5535374
     311   104  2     0.42380      2.9376663     19.2290837      6.7062953
     312   104  2     0.42380      3.9288434     17.9331316      6.7748723
     313   105  1    -0.84760      3.0892215     20.8616563      7.6057806
     314   105  2     0.42380      2.8508783     21.7772844      7.2820251
     315   105  2     0.42380      4.0204864     20.8688454      7.9700527
     316   106  1    -0.84760      5.0571090      2.0850364      6.3953148
     317   106  2     0.42380      5.3563391      2.8026720      5.7664583
     318   106  2     0.42380      5.8338281      1.7792076      6.9459291
     319   107  1    -0.84760      7.1646222      5.1986961      7.9538457
     320   107  2     0.42380      7.5857469      4.6494952      8.6756714
     321   107  2     0.42380      6.4386618      5.7639072      8.3456593
     322   108  1    -0.84760      4.5022772      7.0258976      8.8097585
     323   108  2     0.42380      3.7531529      6.5980413      8.3040394
     324   108  2     0.42380      4.5882652      7.9826899      8.5319916
     325   109  1    -0.84760      4.3610573      9.7314055      8.0226215
     326   109  2     0.42380      4.7143101     10.5722642      8.4327058
     327   109  2     0.42380      3.6015175      9.9524484      7.4108705
     328   110  1    -0.84760      6.3259439     12.7395065      7.9863261
     329   110  2     0.42380      5.5623256     12.6698246      7.3444294
     330   110  2     0.42380      6.1314292     12.1871863      8.7969472
     331   111  1    -0.84760      5.8200856     18.1198687      7.1598460
     332   111  2     0.42380      5.7736624     18.8149769      6.4424413
     333   111  2     0.42380      6.7571818     17.7785775      7.2331323
     334   112  1    -0.84760      5.4084941     20.7269930      9.3251628
     335   112  2     0.42380      5.0545348     20.1098673     10.0279208
     336   112  2     0.42380      6.4047085     20.7768231      9.3963930
     337   113  1    -0.84760      7.5850637      0.8980937      6.6920146
     338   113  2     0.42380      7.8668390      1.4460161      7.4796591
     339   113  2     0.42380      8.1369419      0.0651873      6.6508148
     340   114  1    -0.84760      9.0471860      5.5005993      5.9407295
     341   114  2     0.42380      8.4315442      5.7250876      6.6961037
     342   114  2     0.42380      9.8826989      6.0444972      6.0187897
     343   115  1    -0.84760      7.9191541      8.4141806      8.6046521
     344   115  2     0.42380      8.5905084      9.1340710      8.4284670
     345   115  2     0.42380      7.2488588      8.3947211      7.8628128
     346   116  1    -0.84760      9.6350237     10.2960630      7.6234074
     347   116  2     0.42380     10.6057662     10.1258156      7.4540708
     348   116  2     0.42380      9.4648522     11.2814752      7.6255136
     349   117  1    -0.84760      9.0570225     13.0786399      8.0523616
     350   117  2     0.42380      8.0594602     13.1284298      8.0034692
     351   117  2     0.42380      9.3313868     12.7783142      8.9658870
     352   118  1    -0.84760      8.5881104     17.2081684      6.4169228
     353   118  2     0.42380      9.4159424     16.6527136      6.4954344
     354   118  2     0.42380      8.1756810     17.0663737      5.5170360
     355   119  1    -0.84760      9.1518660     20.2710086      7.1077191
     356   119  2     0.42380      9.0605442     19.3172992      6.8211907
     357   119  2     0.42380     10.1201342     20.5193345      7.1358438
     358   120  1    -0.84760     11.6621028      1.2019799      6.4625121
     359   120  2     0.42380     10.9805511      1.5837570      7.0867985
     360   120  2     0.42380     11.9103557      0.2810147      6.7628349
     361   121  1    -0.84760     13.0219631      5.0590667      7.2089773
     362   121  2     0.42380     14.0156843      4.9518673      7.1769402
     363   121  2     0.42380     12.7834077      6.0123548      7.0236856
     364   122  1    -0.84760     11.2907655      7.1582721      6.0120762
     365   122  2     0.42380     11.7448900      7.9632193      6.3939545
     366   122  2     0.42380     11.4717285      7.1080713      5.0298683
     367   123  1    -0.84760     12.5301314      9.5217500      7.2324943
     368   123  2     0.42380     12.7158405      9.0220091      8.0785270
     369   123  2     0.42380     13.3810276      9.9147465      6.8838837
     370   124  1    -0.84760     11.8671469     13.0997982      7.2638283
     371   124  2     0.42380     10.9287689     13.1449436      7.6064778
     372   124  2     0.42380     11.8685430     13.2497715      6.2751392
     373   125  1    -0.84760     11.3344220     16.3776420      6.9975154
     374   125  2     0.42380     11.1716070     16.8378354      7.8702773
     375   125  2     0.42380     12.3138655     16.2085872      6.8874657
     376   126  1    -0.84760     11.8876049     20.5555658      7.8319368
     377   126  2     0.42380     12.6886941     19.9646843      7.9274099
     378   126  2     0.42380     11.4210702     20.6295698      8.7133384
     379   127  1    -0.84760     14.3738602      0.4389887      6.2288715
     380   127  2     0.42380     14.3539350     -0.4973950      5.8784598
     381   127  2     0.42380     13.8739301      0.4818851      7.0938743
     382   128  1    -0.84760     15.5247367      4.9956202      6.4577382
     383   128  2     0.42380     15.6842862      4.5945940      5.5556729
     384   128  2     0.42380     16.3240859      4.8395800      7.0379902
     385   129  1    -0.84760     14.8491648      7.4443553      7.5320108
     386   129  2     0.42380     14.8571294      6.5283481      7.1309280
     387   129  2     0.42380     15.7731878      7.8260399      7.5096884
     388   130  1    -0.84760     17.4442615     10.3716431      6.5950750
     389   130  2     0.42380     17.4334248     11.1133153      7.2657500
     390   130  2     0.42380     17.8927320      9.5704771      6.9913164
     391   131  1    -0.84760     16.6497072     16.1714179      6.9704339
     392   131  2     0.42380     17.0128967     15.2491336      6.8382027
     393   131  2     0.42380     17.1327743     16.6147956      7.7254587
     394   132  1    -0.84760     14.0412813     16.2661985      6.2100376